 Gaussian 03, Revision B.01,
 Gaussian 03:  x86-Win32-G03RevB.01 3-Mar-2003

 ------------------------------------
 # RHF/STO-2G iop(3/33=4) output(wfn)
 ------------------------------------

 -------------------------
 Formaldehyde Single Point
 -------------------------
 Symbolic Z-matrix:
 Charge =  0 Multiplicity = 1

                         Standard orientation:
 ---------------------------------------------------------------------
 Center     Atomic     Atomic              Coordinates (Angstroms)
 Number     Number      Type              X           Y           Z
 ---------------------------------------------------------------------
    1          6             0        0.000000    0.000000   -0.302387
    2          8             0        0.000000    0.000000    0.226790
 ---------------------------------------------------------------------

 SCF Done:  E(RHF) =  -102.038458008     A.U. after    4 cycles

 The electronic state is 1-SG.
 Alpha  occ. eigenvalues --  -20.76674 -11.73526  -1.61925  -1.16926  -1.16926
 Alpha  occ. eigenvalues --   -0.59555  -0.46725
 Alpha virt. eigenvalues --    0.79287   0.79287   1.31221

 Mulliken atomic charges:
              1
     1  C    0.238417
     2  O   -0.238417
 Sum of Mulliken charges=   0.00000

 Dipole moment (field-independent basis, Debye):
    X=     0.0000    Y=     0.0000    Z=     1.1752  Tot=     1.1752
 Quadrupole moment (field-independent basis, Debye-Ang):
   XX=    -8.4044   YY=    -8.4044   ZZ=   -11.3163
   XY=     0.0000   XZ=     0.0000   YZ=     0.0000

 Normal termination of Gaussian 03 at Tue Nov 11 23:17:57 2014.
